% Model:              Untitled.mph
% Version:            COMSOL 6.1.0.252
% Date:               May 20 2023, 23:36
% Dimension:          2
% Nodes:              400
% Expressions:        1
% Description:        Temperature
% Length unit:        m
% X                       Y                        T (K)
0.02075                   0.020825                 20.054279019400962
0.06224999999999999       0.020825                 20.161390453439164
0.10375                   0.020825                 20.26427488268399
0.14525                   0.020825                 20.36052484290802
0.18675                   0.020825                 20.44768757821035
0.22825                   0.020825                 20.52357406685906
0.26975                   0.020825                 20.586394363049372
0.31124999999999997       0.020825                 20.634815334034176
0.35274999999999995       0.020825                 20.667703514529027
0.39425                   0.020825                 20.68431374855667
0.43574999999999997       0.020825                 20.684313748556708
0.47724999999999995       0.020825                 20.66770351452901
0.5187499999999999        0.020825                 20.634815334034087
0.56025                   0.020825                 20.586394363049475
0.60175                   0.020825                 20.52357406685929
0.64325                   0.020825                 20.44768757821043
0.68475                   0.020825                 20.360524842908223
0.72625                   0.020825                 20.264274882684123
0.76775                   0.020825                 20.16139045343931
0.8092499999999999        0.020825                 20.054279019400987
0.02075                   0.062474999999999996     20.164300544912635
0.06224999999999999       0.062474999999999996     20.48851010784778
0.10375                   0.062474999999999996     20.799890976771753
0.14525                   0.062474999999999996     21.091144121955267
0.18675                   0.062474999999999996     21.35484304529228
0.22825                   0.062474999999999996     21.58437354143302
0.26975                   0.062474999999999996     21.77434004722684
0.31124999999999997       0.062474999999999996     21.920732197031732
0.35274999999999995       0.062474999999999996     22.020146953609533
0.39425                   0.062474999999999996     22.07035159057224
0.43574999999999997       0.062474999999999996     22.070351590572187
0.47724999999999995       0.062474999999999996     22.02014695360938
0.5187499999999999        0.062474999999999996     21.920732197031416
0.56025                   0.062474999999999996     21.774340047226875
0.60175                   0.062474999999999996     21.58437354143325
0.64325                   0.062474999999999996     21.35484304529253
0.68475                   0.062474999999999996     21.091144121955907
0.72625                   0.062474999999999996     20.799890976772197
0.76775                   0.062474999999999996     20.48851010784805
0.8092499999999999        0.062474999999999996     20.164300544912745
0.02075                   0.104125                 20.278724925479946
0.06224999999999999       0.104125                 20.82867898004496
0.10375                   0.104125                 21.35674844609069
0.14525                   0.104125                 21.850508895084765
0.18675                   0.104125                 22.297354512677735
0.22825                   0.104125                 22.686107854778413
0.26975                   0.104125                 23.007696937198983
0.31124999999999997       0.104125                 23.255408181498986
0.35274999999999995       0.104125                 23.42356862030892
0.39425                   0.104125                 23.508472221499616
0.43574999999999997       0.104125                 23.50847222149956
0.47724999999999995       0.104125                 23.423568620308767
0.5187499999999999        0.104125                 23.255408181498975
0.56025                   0.104125                 23.007696937199146
0.60175                   0.104125                 22.6861078547785
0.64325                   0.104125                 22.297354512677973
0.68475                   0.104125                 21.85050889508519
0.72625                   0.104125                 21.356748446091288
0.76775                   0.104125                 20.82867898004539
0.8092499999999999        0.104125                 20.27872492548013
0.02075                   0.145775                 20.400359085066665
0.06224999999999999       0.145775                 21.190206891071163
0.10375                   0.145775                 21.948345863113623
0.14525                   0.145775                 22.65683522607325
0.18675                   0.145775                 23.297552588733517
0.22825                   0.145775                 23.854540637682014
0.26975                   0.145775                 24.31495134322676
0.31124999999999997       0.145775                 24.669342623869465
0.35274999999999995       0.145775                 24.909789556099664
0.39425                   0.145775                 25.031150801384047
0.43574999999999997       0.145775                 25.03115080138422
0.47724999999999995       0.145775                 24.909789556099728
0.5187499999999999        0.145775                 24.66934262386962
0.56025                   0.145775                 24.31495134322688
0.60175                   0.145775                 23.85454063768239
0.64325                   0.145775                 23.29755258873408
0.68475                   0.145775                 22.656835226073785
0.72625                   0.145775                 21.948345863114135
0.76775                   0.145775                 21.19020689107149
0.8092499999999999        0.145775                 20.400359085066732
0.02075                   0.187425                 20.53253331044081
0.06224999999999999       0.187425                 21.582937566600922
0.10375                   0.187425                 22.590627127205583
0.14525                   0.187425                 23.53155451598203
0.18675                   0.187425                 24.38158668943382
0.22825                   0.187425                 25.119692557711755
0.26975                   0.187425                 25.729141066188156
0.31124999999999997       0.187425                 26.19776512158475
0.35274999999999995       0.187425                 26.515457287606505
0.39425                   0.187425                 26.675730248535245
0.43574999999999997       0.187425                 26.675730248535455
0.47724999999999995       0.187425                 26.51545728760663
0.5187499999999999        0.187425                 26.197765121584855
0.56025                   0.187425                 25.72914106618855
0.60175                   0.187425                 25.11969255771242
0.64325                   0.187425                 24.3815866894347
0.68475                   0.187425                 23.53155451598276
0.72625                   0.187425                 22.590627127206076
0.76775                   0.187425                 21.58293756660116
0.8092499999999999        0.187425                 20.53253331044082
0.02075                   0.229075                 20.679092008833983
0.06224999999999999       0.229075                 22.018202757197184
0.10375                   0.229075                 23.301851994658623
0.14525                   0.229075                 24.49903954176614
0.18675                   0.229075                 25.57894701833346
0.22825                   0.229075                 26.515120083748414
0.26975                   0.229075                 27.28688334282586
0.31124999999999997       0.229075                 27.87943644053876
0.35274999999999995       0.229075                 28.280675552655172
0.39425                   0.229075                 28.482959703806095
0.43574999999999997       0.229075                 28.482959703806216
0.47724999999999995       0.229075                 28.280675552655477
0.5187499999999999        0.229075                 27.879436440539145
0.56025                   0.229075                 27.28688334282659
0.60175                   0.229075                 26.515120083749366
0.64325                   0.229075                 25.578947018334524
0.68475                   0.229075                 24.499039541766884
0.72625                   0.229075                 23.301851994659206
0.76775                   0.229075                 22.01820275719735
0.8092499999999999        0.229075                 20.679092008833884
0.02075                   0.270725                 20.844512538928626
0.06224999999999999       0.270725                 22.509143878958778
0.10375                   0.270725                 24.103030417966785
0.14525                   0.270725                 25.587034185014158
0.18675                   0.270725                 26.92277262365689
0.22825                   0.270725                 28.078017057692524
0.26975                   0.270725                 29.028233130961212
0.31124999999999997       0.270725                 29.75627219199205
0.35274999999999995       0.270725                 30.248446117307445
0.39425                   0.270725                 30.496338358768206
0.43574999999999997       0.270725                 30.49633835876842
0.47724999999999995       0.270725                 30.24844611730801
0.5187499999999999        0.270725                 29.75627219199273
0.56025                   0.270725                 29.02823313096212
0.60175                   0.270725                 28.07801705769361
0.64325                   0.270725                 26.92277262365785
0.68475                   0.270725                 25.58703418501482
0.72625                   0.270725                 24.103030417967094
0.76775                   0.270725                 22.509143878958795
0.8092499999999999        0.270725                 20.8445125389286
0.02075                   0.31237499999999996      21.03363188638189
0.06224999999999999       0.31237499999999996      23.069891369208463
0.10375                   0.31237499999999996      25.016558065668193
0.14525                   0.31237499999999996      26.824760819042897
0.18675                   0.31237499999999996      28.44746810901896
0.22825                   0.31237499999999996      29.84640334285653
0.26975                   0.31237499999999996      30.99352442515102
0.31124999999999997       0.31237499999999996      31.869925942099417
0.35274999999999995       0.31237499999999996      32.461083841246534
0.39425                   0.31237499999999996      32.75844821734538
0.43574999999999997       0.31237499999999996      32.75844821734572
0.47724999999999995       0.31237499999999996      32.46108384124707
0.5187499999999999        0.31237499999999996      31.869925942100245
0.56025                   0.31237499999999996      30.99352442515202
0.60175                   0.31237499999999996      29.84640334285741
0.64325                   0.31237499999999996      28.447468109019688
0.68475                   0.31237499999999996      26.82476081904351
0.72625                   0.31237499999999996      25.01655806566844
0.76775                   0.31237499999999996      23.06989136920857
0.8092499999999999        0.31237499999999996      21.033631886382118
0.02075                   0.354025                 21.25294110881735
0.06224999999999999       0.354025                 23.71929799029962
0.10375                   0.354025                 26.071995466914082
0.14525                   0.354025                 28.25022042320138
0.18675                   0.354025                 30.196968846993226
0.22825                   0.354025                 31.86788467642928
0.26975                   0.354025                 33.2322954026191
0.31124999999999997       0.354025                 34.2706851809649
0.35274999999999995       0.354025                 34.96901898050771
0.39425                   0.354025                 35.31968909556422
0.43574999999999997       0.354025                 35.31968909556447
0.47724999999999995       0.354025                 34.96901898050827
0.5187499999999999        0.354025                 34.27068518096576
0.56025                   0.354025                 33.23229540262004
0.60175                   0.354025                 31.867884676430357
0.64325                   0.354025                 30.19696884699413
0.68475                   0.354025                 28.250220423202045
0.72625                   0.354025                 26.071995466914498
0.76775                   0.354025                 23.719297990299896
0.8092499999999999        0.354025                 21.25294110881736
0.02075                   0.39567499999999994      21.511153312994185
0.06224999999999999       0.39567499999999994      24.482448611194474
0.10375                   0.39567499999999994      27.308039561905154
0.14525                   0.39567499999999994      29.912042073132728
0.18675                   0.39567499999999994      32.225950830092756
0.22825                   0.39567499999999994      34.199919655703134
0.26975                   0.39567499999999994      35.80254414126966
0.31124999999999997       0.39567499999999994      37.01582515500044
0.35274999999999995       0.39567499999999994      37.82849428488117
0.39425                   0.39567499999999994      38.23563467364851
0.43574999999999997       0.39567499999999994      38.235634673648875
0.47724999999999995       0.39567499999999994      37.82849428488175
0.5187499999999999        0.39567499999999994      37.01582515500147
0.56025                   0.39567499999999994      35.80254414127081
0.60175                   0.39567499999999994      34.19991965570422
0.64325                   0.39567499999999994      32.2259508300937
0.68475                   0.39567499999999994      29.91204207313346
0.72625                   0.39567499999999994      27.308039561905694
0.76775                   0.39567499999999994      24.482448611194922
0.8092499999999999        0.39567499999999994      21.51115331299438
0.02075                   0.437325                 21.820282792027736
0.06224999999999999       0.437325                 25.393499311036802
0.10375                   0.437325                 28.776180613225286
0.14525                   0.437325                 31.8728878258797
0.18675                   0.437325                 34.602148642180474
0.22825                   0.437325                 36.91067860084788
0.26975                   0.437325                 38.77015209878289
0.31124999999999997       0.437325                 40.167855089221256
0.35274999999999995       0.437325                 41.09901475332279
0.39425                   0.437325                 41.56408727264212
0.43574999999999997       0.437325                 41.56408727264242
0.47724999999999995       0.437325                 41.09901475332364
0.5187499999999999        0.437325                 40.16785508922247
0.56025                   0.437325                 38.77015209878402
0.60175                   0.437325                 36.91067860084903
0.64325                   0.437325                 34.60214864218136
0.68475                   0.437325                 31.872887825880497
0.72625                   0.437325                 28.776180613225904
0.76775                   0.437325                 25.39349931103741
0.8092499999999999        0.437325                 21.82028279202801
0.02075                   0.47897499999999993      22.195425977642664
0.06224999999999999       0.47897499999999993      26.4948029371692
0.10375                   0.47897499999999993      30.538748784811272
0.14525                   0.47897499999999993      34.206106621320814
0.18675                   0.47897499999999993      37.40164165649145
0.22825                   0.47897499999999993      40.07330895442427
0.26975                   0.47897499999999993      42.20257008628649
0.31124999999999997       0.47897499999999993      43.78799866625306
0.35274999999999995       0.47897499999999993      44.83683219015422
0.39425                   0.47897499999999993      45.35860783530477
0.43574999999999997       0.47897499999999993      45.35860783530513
0.47724999999999995       0.47897499999999993      44.83683219015498
0.5187499999999999        0.47897499999999993      43.78799866625393
0.56025                   0.47897499999999993      42.20257008628752
0.60175                   0.47897499999999993      40.073308954425116
0.64325                   0.47897499999999993      37.4016416564923
0.68475                   0.47897499999999993      34.20610662132156
0.72625                   0.47897499999999993      30.538748784811798
0.76775                   0.47897499999999993      26.494802937169602
0.8092499999999999        0.47897499999999993      22.195425977642813
0.02075                   0.520625                 22.66034897076276
0.06224999999999999       0.520625                 27.851972578331306
0.10375                   0.520625                 32.68956311959992
0.14525                   0.520625                 37.017736226793005
0.18675                   0.520625                 40.72908389237658
0.22825                   0.520625                 43.783006255499316
0.26975                   0.520625                 46.18261470798449
0.31124999999999997       0.520625                 47.94727090730065
0.35274999999999995       0.520625                 49.10417650012567
0.39425                   0.520625                 49.67682929492403
0.43574999999999997       0.520625                 49.67682929492423
0.47724999999999995       0.520625                 49.104176500126165
0.5187499999999999        0.520625                 47.94727090730136
0.56025                   0.520625                 46.18261470798529
0.60175                   0.520625                 43.78300625550003
0.64325                   0.520625                 40.72908389237709
0.68475                   0.520625                 37.01773622679348
0.72625                   0.520625                 32.68956311960031
0.76775                   0.520625                 27.851972578331416
0.8092499999999999        0.520625                 22.660348970762826
0.02075                   0.562275                 23.254408341183407
0.06224999999999999       0.562275                 29.570963045564966
0.10375                   0.562275                 35.37356718334294
0.14525                   0.562275                 40.461795392026936
0.18675                   0.562275                 44.72547435916603
0.22825                   0.562275                 48.15771053900952
0.26975                   0.562275                 50.804022977014476
0.31124999999999997       0.562275                 52.7189437952051
0.35274999999999995       0.562275                 53.96016967209625
0.39425                   0.562275                 54.570748658754894
0.43574999999999997       0.562275                 54.570748658755036
0.47724999999999995       0.562275                 53.960169672096484
0.5187499999999999        0.562275                 52.71894379520558
0.56025                   0.562275                 50.804022977015
0.60175                   0.562275                 48.15771053901007
0.64325                   0.562275                 44.72547435916643
0.68475                   0.562275                 40.461795392027256
0.72625                   0.562275                 35.37356718334313
0.76775                   0.562275                 29.570963045564984
0.8092499999999999        0.562275                 23.25440834118346
0.02075                   0.6039249999999999       24.048863523523735
0.06224999999999999       0.6039249999999999       31.835090423017846
0.10375                   0.6039249999999999       38.82381415505225
0.14525                   0.6039249999999999       44.76306787906097
0.18675                   0.6039249999999999       49.5750133952158
0.22825                   0.6039249999999999       53.33415618744669
0.26975                   0.6039249999999999       56.16209450163946
0.31124999999999997       0.6039249999999999       58.16747651188297
0.35274999999999995       0.6039249999999999       59.44968850850957
0.39425                   0.6039249999999999       60.07582522524405
0.43574999999999997       0.6039249999999999       60.075825225244145
0.47724999999999995       0.6039249999999999       59.44968850850969
0.5187499999999999        0.6039249999999999       58.16747651188316
0.56025                   0.6039249999999999       56.162094501639665
0.60175                   0.6039249999999999       53.33415618744695
0.64325                   0.6039249999999999       49.57501339521591
0.68475                   0.6039249999999999       44.76306787906117
0.72625                   0.6039249999999999       38.82381415505226
0.76775                   0.6039249999999999       31.835090423017817
0.8092499999999999        0.6039249999999999       24.048863523523785
0.02075                   0.645575                 25.159935106696107
0.06224999999999999       0.645575                 34.92747610353541
0.10375                   0.645575                 43.37102188123047
0.14525                   0.645575                 50.20718600184096
0.18675                   0.645575                 55.484663464869904
0.22825                   0.645575                 59.44671591795976
0.26975                   0.645575                 62.336615280898094
0.31124999999999997       0.645575                 64.33653422744213
0.35274999999999995       0.645575                 65.59526472329831
0.39425                   0.645575                 66.20487916787872
0.43574999999999997       0.645575                 66.20487916787867
0.47724999999999995       0.645575                 65.5952647232983
0.5187499999999999        0.645575                 64.33653422744214
0.56025                   0.645575                 62.336615280897995
0.60175                   0.645575                 59.44671591795965
0.64325                   0.645575                 55.48466346486975
0.68475                   0.645575                 50.20718600184074
0.72625                   0.645575                 43.37102188123038
0.76775                   0.645575                 34.927476103535234
0.8092499999999999        0.645575                 25.15993510669598
0.02075                   0.687225                 26.831304105125323
0.06224999999999999       0.687225                 39.4025482597249
0.10375                   0.687225                 49.59407743914604
0.14525                   0.687225                 57.22454446310269
0.18675                   0.687225                 62.71874811036244
0.22825                   0.687225                 66.63723737217452
0.26975                   0.687225                 69.39120670741023
0.31124999999999997       0.687225                 71.24472466530676
0.35274999999999995       0.687225                 72.39168388606608
0.39425                   0.687225                 72.94236970889966
0.43574999999999997       0.687225                 72.94236970889962
0.47724999999999995       0.687225                 72.391683886066
0.5187499999999999        0.687225                 71.24472466530668
0.56025                   0.687225                 69.39120670741009
0.60175                   0.687225                 66.63723737217423
0.64325                   0.687225                 62.71874811036206
0.68475                   0.687225                 57.22454446310228
0.72625                   0.687225                 49.594077439145686
0.76775                   0.687225                 39.40254825972457
0.8092499999999999        0.687225                 26.83130410512513
0.02075                   0.7288749999999999       29.67143074508257
0.06224999999999999       0.7288749999999999       46.4913622097464
0.10375                   0.7288749999999999       58.536452083356394
0.14525                   0.7288749999999999       66.39422522665214
0.18675                   0.7288749999999999       71.53637385784496
0.22825                   0.7288749999999999       74.99170282556025
0.26975                   0.7288749999999999       77.32555160807306
0.31124999999999997       0.7288749999999999       78.8527767738252
0.35274999999999995       0.7288749999999999       79.78275944495657
0.39425                   0.7288749999999999       80.22570211524861
0.43574999999999997       0.7288749999999999       80.22570211524864
0.47724999999999995       0.7288749999999999       79.78275944495655
0.5187499999999999        0.7288749999999999       78.85277677382501
0.56025                   0.7288749999999999       77.32555160807273
0.60175                   0.7288749999999999       74.99170282555984
0.64325                   0.7288749999999999       71.53637385784445
0.68475                   0.7288749999999999       66.39422522665143
0.72625                   0.7288749999999999       58.53645208335593
0.76775                   0.7288749999999999       46.491362209746015
0.8092499999999999        0.7288749999999999       29.671430745082425
0.02075                   0.770525                 36.17919585960554
0.06224999999999999       0.770525                 59.41412672070813
0.10375                   0.770525                 71.70095797085504
0.14525                   0.770525                 78.15998054671644
0.18675                   0.770525                 81.9950222721857
0.22825                   0.770525                 84.43361937124799
0.26975                   0.770525                 86.02406325286769
0.31124999999999997       0.770525                 87.04045490340592
0.35274999999999995       0.770525                 87.65146920667041
0.39425                   0.770525                 87.94065906266735
0.43574999999999997       0.770525                 87.94065906266735
0.47724999999999995       0.770525                 87.65146920667034
0.5187499999999999        0.770525                 87.04045490340573
0.56025                   0.770525                 86.02406325286739
0.60175                   0.770525                 84.43361937124756
0.64325                   0.770525                 81.99502227218517
0.68475                   0.770525                 78.15998054671591
0.72625                   0.770525                 71.70095797085453
0.76775                   0.770525                 59.41412672070794
0.8092499999999999        0.770525                 36.17919585960546
0.02075                   0.812175                 59.8822782943215
0.06224999999999999       0.812175                 83.38629010932058
0.10375                   0.812175                 89.70933707944427
0.14525                   0.812175                 92.34836707630917
0.18675                   0.812175                 93.80940969377195
0.22825                   0.812175                 94.70331923111111
0.26975                   0.812175                 95.27274127058743
0.31124999999999997       0.812175                 95.6311789521151
0.35274999999999995       0.812175                 95.8450032351351
0.39425                   0.812175                 95.94582950451468
0.43574999999999997       0.812175                 95.94582950451465
0.47724999999999995       0.812175                 95.84500323513508
0.5187499999999999        0.812175                 95.631178952115
0.56025                   0.812175                 95.2727412705872
0.60175                   0.812175                 94.7033192311108
0.64325                   0.812175                 93.80940969377161
0.68475                   0.812175                 92.34836707630885
0.72625                   0.812175                 89.70933707944408
0.76775                   0.812175                 83.38629010932063
0.8092499999999999        0.812175                 59.88227829432141
